version 2
run config-0-20160509-21:40:49-26564
attr beaconInterval 0.1
attr caccC1 0.5
attr caccOmegaN 0.2
attr caccXi 1
attr configname config
attr controller 0
attr datetime 20160509-21:40:49
attr experiment config
attr headway 0.3
attr inifile omnetpp.ini
attr iterationvars "$controller=0, $sController=\"ACC\", $headway=0.3, $caccC1=0.5, $caccXi=1, $caccOmegaN=0.2, $ploegH=0.5, $ploegKp=0.2, $ploegKd=0.7, $priority=2, $packetSize=200, $beaconInterval=0.1"
attr iterationvars2 "$controller=0, $sController=\"ACC\", $headway=0.3, $caccC1=0.5, $caccXi=1, $caccOmegaN=0.2, $ploegH=0.5, $ploegKp=0.2, $ploegKd=0.7, $priority=2, $packetSize=200, $beaconInterval=0.1, $repetition=0"
attr measurement "$controller=0, $sController=\"ACC\", $headway=0.3, $caccC1=0.5, $caccXi=1, $caccOmegaN=0.2, $ploegH=0.5, $ploegKp=0.2, $ploegKd=0.7, $priority=2, $packetSize=200, $beaconInterval=0.1"
attr network scenario
attr packetSize 200
attr ploegH 0.5
attr ploegKd 0.7
attr ploegKp 0.2
attr priority 2
attr processid 26564
attr repetition 0
attr replication #0
attr resultdir results
attr runnumber 0
attr sController "\"ACC\""
attr seedset 0

vector 9  scenario.node[0].mobility  posx  ETV
vector 10  scenario.node[0].mobility  posy  ETV
vector 23  scenario.node[1].mobility  posx  ETV
vector 24  scenario.node[1].mobility  posy  ETV
vector 11  scenario.node[0].mobility  speed  ETV
vector 25  scenario.node[1].mobility  speed  ETV
vector 12  scenario.node[0].mobility  acceleration  ETV
vector 13  scenario.node[0].mobility  co2emission  ETV
vector 26  scenario.node[1].mobility  acceleration  ETV
vector 27  scenario.node[1].mobility  co2emission  ETV
vector 0  scenario.node[0].prot  distance  ETV
vector 1  scenario.node[0].prot  relativeSpeed  ETV
vector 2  scenario.node[0].prot  nodeId  ETV
vector 6  scenario.node[0].prot  acceleration  ETV
vector 3  scenario.node[0].prot  speed  ETV
vector 4  scenario.node[0].prot  posx  ETV
vector 5  scenario.node[0].prot  posy  ETV
vector 14  scenario.node[1].prot  distance  ETV
vector 15  scenario.node[1].prot  relativeSpeed  ETV
vector 16  scenario.node[1].prot  nodeId  ETV
vector 20  scenario.node[1].prot  acceleration  ETV
vector 17  scenario.node[1].prot  speed  ETV
vector 18  scenario.node[1].prot  posx  ETV
vector 19  scenario.node[1].prot  posy  ETV
vector 37  scenario.node[2].mobility  posx  ETV
vector 38  scenario.node[2].mobility  posy  ETV
vector 39  scenario.node[2].mobility  speed  ETV
vector 40  scenario.node[2].mobility  acceleration  ETV
vector 41  scenario.node[2].mobility  co2emission  ETV
vector 28  scenario.node[2].prot  distance  ETV
vector 29  scenario.node[2].prot  relativeSpeed  ETV
vector 30  scenario.node[2].prot  nodeId  ETV
vector 34  scenario.node[2].prot  acceleration  ETV
vector 31  scenario.node[2].prot  speed  ETV
vector 32  scenario.node[2].prot  posx  ETV
vector 33  scenario.node[2].prot  posy  ETV
vector 51  scenario.node[3].mobility  posx  ETV
vector 52  scenario.node[3].mobility  posy  ETV
vector 53  scenario.node[3].mobility  speed  ETV
vector 54  scenario.node[3].mobility  acceleration  ETV
vector 55  scenario.node[3].mobility  co2emission  ETV
vector 42  scenario.node[3].prot  distance  ETV
vector 43  scenario.node[3].prot  relativeSpeed  ETV
vector 44  scenario.node[3].prot  nodeId  ETV
vector 48  scenario.node[3].prot  acceleration  ETV
vector 45  scenario.node[3].prot  speed  ETV
vector 46  scenario.node[3].prot  posx  ETV
vector 47  scenario.node[3].prot  posy  ETV
vector 65  scenario.node[4].mobility  posx  ETV
vector 66  scenario.node[4].mobility  posy  ETV
vector 67  scenario.node[4].mobility  speed  ETV
vector 68  scenario.node[4].mobility  acceleration  ETV
vector 69  scenario.node[4].mobility  co2emission  ETV
vector 56  scenario.node[4].prot  distance  ETV
vector 57  scenario.node[4].prot  relativeSpeed  ETV
vector 58  scenario.node[4].prot  nodeId  ETV
vector 62  scenario.node[4].prot  acceleration  ETV
vector 59  scenario.node[4].prot  speed  ETV
vector 60  scenario.node[4].prot  posx  ETV
vector 61  scenario.node[4].prot  posy  ETV
20	28	0.2	0.44976093755157
20	40	0.3	0.63843817065795
20	52	0.4	0.79321921806192
20	64	0.5	0.92019358715266
20	76	0.6	1.024356794964
20	88	0.7	1.1098069054015
20	136	0.8	1.1799057582231
20	184	0.9	1.2374112329585
20	232	1	1.2845857513912
20	280	1.1	1.3232852873849
20	328	1.2	1.3550323859433
20	376	1.3	1.3810760642716
20	424	1.4	1.4024409515107
20	472	1.5	1.4199676004344
20	520	1.6	1.4343455570814
20	568	1.7	1.4461404893725
20	616	1.8	1.4558164420246
20	664	1.9	1.4637540933325
20	712	2	1.4702657320879
20	760	2.1	1.4756075438703
20	808	2.2	1.4799896900842
20	856	2.3	1.4835845762806
20	904	2.4	1.4865336350601
20	952	2.5	1.4889528904161
20	1000	2.6	1.4909375224343
20	1048	2.7	1.4925656119363
20	1096	2.8	1.4939012123913
20	1144	2.9	1.4949968699539
20	1192	3	1.4958956907727
20	1251	3.1	1.4966330369032
20	1316	3.2	1.4972379175479
20	1381	3.3	1.4977341303563
20	1472	3.4	1.4981411976899
20	1563	3.5	1.4984751346851
20	1654	3.6	1.4987490793314
20	1745	3.7	1.4989738093563
20	1836	3.8	1.4991581662501
20	1927	3.9	1.4993094031146
20	2018	4	1.4994334700193
20	2109	4.1	1.4995352480935
20	2200	4.2	1.4996187415637
20	2291	4.3	1.4996872352901
20	2382	4.4	1.4997434240019
20	2473	4.5	1.4997895183163
20	2564	4.6	1.4998273317086
20	2655	4.7	1.4998583518607
20	2746	4.8	1.4998837991897
20	2837	4.9	1.4999046748629
20	2928	5	1.4999218001858
20	3019	5.1	1.4999358489153
20	3110	5.2	1.4999473737667
20	3201	5.3	1.4999568281589
20	3292	5.4	1.4999645840536
20	3383	5.5	1.4999709465886
20	3474	5.6	1.4999761660833
20	3565	5.7	1.4999804478868
20	3656	5.8	1.4999839604571
20	3747	5.9	1.4999868419883
20	3838	6	1.4999892058473
20	3948	6.1	1.4999911450351
20	4064	6.2	1.4999927358446
20	4180	6.3	1.4999940408623
20	4296	6.4	1.4999951114316
20	4412	6.5	1.4999959896713
20	4562	6.6	1.4999967101334
20	4712	6.7	1.4999973011635
20	4862	6.8	1.4999977860141
20	5012	6.9	1.4999981837603
20	5162	7	1.4999985100509
20	5312	7.1	1.4999987777227
20	5462	7.2	1.4999989973067
20	5612	7.3	1.4999991774422
20	5762	7.4	1.4990323250043
20	5912	7.5	1.4375409313168
20	6062	7.6	1.2944526816487
20	6212	7.7	1.0866091329206
20	6362	7.8	0.8292883137381
20	6512	7.9	0.53619953998467
20	6662	8	0.21950337771823
20	6812	8.1	-0.11014725113032
20	6962	8.2	-0.443548566742
20	7112	8.3	-0.77287350086639
20	7262	8.4	-1.0915885136114
20	7412	8.5	-1.39436253474
20	7562	8.6	-1.4160310830162
20	7712	8.7	-0.89216114133546
20	7862	8.8	-0.46240532532185
20	8012	8.9	-0.10985587229353
20	8162	9	0.17935747211997
20	8339	9.1	0.41661314751078
20	8564	9.2	0.61124543745361
20	8789	9.3	0.77091170560877
20	9014	9.4	0.90189365723745
20	9239	9.5	1.0093444785703
20	9464	9.6	1.0974915771708
20	9689	9.7	1.1698028996465
20	9914	9.8	1.2291233701013
20	10139	9.9	1.2777868171867
20	10364	10	1.3177077932694
20	10632	10.1	1.3504568981283
20	10857	10.2	1.3773225706217
20	11082	10.3	1.3993617793764
20	11307	10.4	1.4174416068091
20	11532	10.5	1.4322733625054
20	11757	10.6	1.4444405680749
20	11982	10.7	1.4544219144781
20	12207	10.8	1.4626100950304
20	12432	10.9	1.4693272550256
20	12657	11	1.4748376658076
20	12882	11.1	1.4793581219241
20	13107	11.2	1.4830664704141
20	13332	11.3	1.4861086077936
20	13557	11.4	1.4886042200207
20	13782	11.5	1.4906514912681
20	14007	11.6	1.4923309667555
20	14232	11.7	1.4937087216165
20	14457	11.8	1.4948389604738
20	14682	11.9	1.4957661499992
20	14907	12	1.4965267683499
20	15132	12.1	1.497150740321
20	15357	12.2	1.4976626146666
20	15582	12.3	1.4980825299157
20	15807	12.4	1.4984270066766
20	16032	12.5	1.4987095976016
20	16257	12.6	1.4989414205861
20	16482	12.7	1.4991315961774
20	16707	12.8	1.4992876064007
20	16932	12.9	1.4994155891218
20	17157	13	1.4995205795293
20	17382	13.1	1.499606708232
20	17607	13.2	1.4996773637666
20	17832	13.3	1.4997353259144
20	18057	13.4	1.4997828750634
20	18282	13.5	1.4998218819269
20	18507	13.6	1.4998538811412
20	18732	13.7	1.4998801316427
20	18957	13.8	1.4999016661964
20	19182	13.9	1.4999193320318
20	19407	14	1.499933824169
20	19632	14.1	1.4999457127697
20	19857	14.2	1.4999554655624
20	20082	14.3	1.4999634662502
20	20307	14.4	1.4999700296006
20	20532	14.5	1.4999754138341
20	20757	14.6	1.4999798307805
20	20982	14.7	1.4999834542149
20	21207	14.8	1.4999864266926
20	21432	14.9	1.4999888651602
20	21657	15	1.4999908655525
20	21882	15.1	1.4999925065716
20	22107	15.2	1.499993852779
20	22332	15.3	1.4999949571376
20	22557	15.4	1.4999958630966
20	22782	15.5	1.4999966062987
20	23007	15.6	1.4999972159828
20	23232	15.7	1.4999977161363
20	23457	15.8	1.4683486063731
20	23682	15.9	1.3025101926726
20	23907	16	1.0200251922743
20	24132	16.1	0.64707589738511
20	24357	16.2	0.20723282960375
20	24582	16.3	-0.27852304087119
20	24807	16.4	-0.79174110733611
20	25032	16.5	-1.3164113219112
20	25257	16.6	-1.8388496711228
20	25482	16.7	-2.3475643485188
20	25707	16.8	-2.8331075467559
20	25932	16.9	-3.2879172929579
20	26157	17	-3.7061532566483
20	26382	17.1	-4.0835299763085
20	26607	17.2	-4.4171504845561
20	26832	17.3	-4.7013776629505
20	27057	17.4	-4.9346773736218
20	27282	17.5	-5.1260643946321
20	27507	17.6	-5.2808699591838
20	27732	17.7	-5.3934922698032
20	27957	17.8	-5.4650143234257
20	28182	17.9	-5.4980757647607
20	28407	18	-5.4956168656679
20	28632	18.1	-5.4607850007466
20	28857	18.2	-5.396851764776
20	29082	18.3	-5.3071404583127
20	29307	18.4	-4.3986518169277
20	29532	18.5	-3.3389489895718
20	29757	18.6	-2.4696235767779
20	29982	18.7	-1.7564739523541
20	30207	18.8	-1.1714428704012
20	30432	18.9	-0.69151361694715
20	30657	19	-0.29780446981587
20	30882	19.1	0.02517415967862
20	31107	19.2	0.29012912928028
20	31332	19.3	0.50748448813653
20	31557	19.4	0.68579158724305
20	31782	19.5	0.83206551285091
20	32007	19.6	0.95206107903945
20	32232	19.7	1.0504992377545
20	32457	19.8	1.1312528138994
20	32682	19.9	1.1974988727985
20	32907	20	1.25184371459
20	33175	20.1	1.2964254131608
20	33400	20.2	1.332997933789
20	33625	20.3	1.363000138908
20	33850	20.4	1.38761239687
20	34075	20.5	1.407803020845
20	34300	20.6	1.4243663648967
20	34525	20.7	1.4379540760297
20	34750	20.8	1.4491007317567
20	34975	20.9	1.4582448718317
20	35200	21	1.4657462515961
20	35425	21.1	1.4718999957324
20	35650	21.2	1.4769482092726
20	35875	21.3	1.4810895026676
20	36100	21.4	1.4844868056635
20	36325	21.5	1.4872737774004
20	36550	21.6	1.4895600649265
20	36775	21.7	1.4914356170118
20	37000	21.8	1.4929742229763
20	37225	21.9	1.4942364157633
20	37450	22	1.4952718534701
20	37675	22.1	1.4961212730327
20	37900	22.2	1.4968180929268
20	38125	22.3	1.4973897279424
20	38350	22.4	1.4978586677552
20	38575	22.5	1.4982433617332
20	38800	22.6	1.4985589447841
20	39025	22.7	1.4988178328036
20	39250	22.8	1.4990302111503
20	39475	22.9	1.4992044353658
20	39700	23	1.4993473599048
20	39925	23.1	1.4994646078074
20	40150	23.2	1.4995607919252
20	40375	23.3	1.4996396964026
20	40600	23.4	1.4997044255562
20	40825	23.5	1.4997575260072
20	41050	23.6	1.4998010868723
20	41275	23.7	1.499836821954
20	41500	23.8	1.4998661371674
20	41725	23.9	1.4998901858529
20	41950	24	1.4999099141505
20	42175	24.1	1.4999260982268
20	42400	24.2	1.4999393748059
20	42625	24.3	1.4999502662253
20	42850	24.4	1.4999592009822
20	43075	24.5	1.4999665305954
20	43300	24.6	1.4999725434311
20	43525	24.7	1.4999774760504
20	43750	24.8	1.4999815225167
20	43975	24.9	1.4999848420281
20	44200	25	1.4999875651839
20	44425	25.1	1.4999897991199
20	44650	25.2	1.4999916317258
20	44875	25.3	1.4999931351003
20	45100	25.4	1.4999943683907
20	45325	25.5	1.499995380119
20	45550	25.6	1.4999962100887
20	45775	25.7	1.4999968909525
20	46000	25.8	1.499997449498
20	46225	25.9	1.4999979076997
20	46450	26	1.499998283585
20	46675	26.1	1.4999985919417
20	46900	26.2	1.4999988449016
20	47125	26.3	1.4999990524164
20	47350	26.4	1.4999992226514
20	47575	26.5	1.4999993623032
20	47800	26.6	1.4999994768665
20	48025	26.7	1.4999995708482
20	48250	26.8	1.4999996479464
20	48475	26.9	1.4999997111936
20	48700	27	1.4999997630785
20	48925	27.1	1.4999998056414
20	49150	27.2	1.4999998405582
20	49375	27.3	1.4999998692023
20	49600	27.4	1.4729525713953
20	49825	27.5	1.3020341934531
20	50050	27.6	1.0011490287919
20	50275	27.7	0.59926379979629
20	50500	27.8	0.12246819684343
20	50725	27.9	-0.40600250289735
20	50950	28	-0.96570379504861
20	51175	28.1	-1.5388843023715
20	51400	28.2	-2.1103606406914
20	51625	28.3	-2.6673707851476
20	51850	28.4	-3.1994113814722
20	52075	28.5	-3.693219776471
20	52300	28.6	-4.1076367654426
20	52525	28.7	-4.4476030377851
20	52750	28.8	-4.7264937913159
20	52975	28.9	-4.9552813468257
20	53200	29	-5.1429668290204
20	53425	29.1	-5.2969342952505
20	53650	29.2	-5.423241244409
20	53875	29.3	-5.5268569354123
20	54100	29.4	-5.6118578913679
20	54325	29.5	-5.6815882810739
20	54550	29.6	-5.7387914877189
20	54775	29.7	-5.7857180410373
20	55000	29.8	-5.8242141592711
20	55225	29.9	-5.852516276096
20	55450	30	-5.8428178697167
20	55675	30.1	-5.7924405570111
19	28	0.2	240.55893877114
19	40	0.3	240.55837303869
19	52	0.4	240.55733240207
19	64	0.5	240.55571104014
19	76	0.6	240.55342214272
19	88	0.7	240.55039449522
19	136	0.8	240.54656967686
19	184	0.9	240.54189976228
19	232	1	240.53634543596
19	280	1.1	240.52987444551
19	328	1.2	240.52246033272
19	376	1.3	240.51408139264
19	424	1.4	240.50471981967
19	472	1.5	240.49436100698
19	520	1.6	240.48299297193
19	568	1.7	240.47060588454
19	616	1.8	240.45719168083
19	664	1.9	240.44274374551
19	712	2	240.42725665174
19	760	2.1	240.41072594764
19	808	2.2	240.3931479811
19	856	2.3	240.37451975611
19	904	2.4	240.35483881492
19	952	2.5	240.33410314131
19	1000	2.6	240.31231108127
19	1048	2.7	240.28946127795
19	1096	2.8	240.26555261824
19	1144	2.9	240.24058418903
19	1192	3	240.21455524123
19	1251	3.1	240.18746516032
19	1316	3.2	240.15931344221
19	1381	3.3	240.13009967334
19	1472	3.4	240.09982351446
19	1563	3.5	240.06848468727
19	1654	3.6	240.03608296345
19	1745	3.7	240.00261815573
19	1836	3.8	239.96809011045
19	1927	3.9	239.93249870157
19	2018	4	239.89584382569
19	2109	4.1	239.858125398
19	2200	4.2	239.81934334891
19	2291	4.3	239.77949762133
19	2382	4.4	239.73858816844
19	2473	4.5	239.69661495182
19	2564	4.6	239.65357793996
19	2655	4.7	239.609477107
19	2746	4.8	239.56431243174
19	2837	4.9	239.51808389678
19	2928	5	239.47079148785
19	3019	5.1	239.42243519324
19	3110	5.2	239.37301500334
19	3201	5.3	239.32253091028
19	3292	5.4	239.27098290758
19	3383	5.5	239.21837098996
19	3474	5.6	239.16469515306
19	3565	5.7	239.1099553933
19	3656	5.8	239.05415170777
19	3747	5.9	238.99728409406
19	3838	6	238.9393525502
19	3948	6.1	238.88035707457
19	4064	6.2	238.82029766586
19	4180	6.3	238.75917432296
19	4296	6.4	238.696987045
19	4412	6.5	238.63373583123
19	4562	6.6	238.56942068106
19	4712	6.7	238.504041594
19	4862	6.8	238.43759856963
19	5012	6.9	238.37009160764
19	5162	7	238.30152070774
19	5312	7.1	238.23188586971
19	5462	7.2	238.16118709338
19	5612	7.3	238.08942437858
19	5762	7.4	238.01659773893
19	5912	7.5	237.94271593134
19	6062	7.6	237.8678345534
19	6212	7.7	237.79206435477
19	6362	7.8	237.71555983963
19	6512	7.9	237.63850865294
19	6662	8	237.56112207653
19	6812	8.1	237.48362661813
19	6962	8.2	237.40625666128
19	7112	8.3	238.14152371394
19	7262	8.4	239.0488392078
19	7412	8.5	239.94171605315
19	7562	8.6	240.49869053199
19	7712	8.7	240.39657478326
19	7862	8.8	240.29078573402
19	8012	8.9	240.18275546221
19	8162	9	240.08594010433
19	8339	9.1	240.00184019484
19	8564	9.2	239.91736754624
19	8789	9.3	239.8323687166
19	9014	9.4	239.74671783007
19	9239	9.5	239.66031162463
19	9464	9.6	239.57306538945
19	9689	9.7	239.48490963215
19	9914	9.8	239.39578734476
19	10139	9.9	239.3056517609
19	10364	10	239.21446451586
19	10632	10.1	239.12219413719
19	10857	10.2	239.02881480654
19	11082	10.3	238.93430534385
19	11307	10.4	238.83864837413
19	11532	10.5	238.74182964379
19	11757	10.6	238.64383745996
19	11982	10.7	238.5446622304
19	12207	10.8	238.44429608612
19	12432	10.9	238.34273257182
19	12657	11	238.23996639191
19	12882	11.1	238.13599320216
19	13107	11.2	238.03080943878
19	13332	11.3	237.92441217822
19	13557	11.4	237.81679902216
19	13782	11.5	237.70796800314
19	14007	11.6	237.59791750715
19	14232	11.7	237.48664621015
19	14457	11.8	237.37415302596
19	14682	11.9	237.26043706354
19	14907	12	237.14549759192
19	15132	12.1	237.02933401145
19	15357	12.2	236.91194583021
19	15582	12.3	236.79333264466
19	15807	12.4	236.67349412374
19	16032	12.5	236.55242999589
19	16257	12.6	236.43014003832
19	16482	12.7	236.30662406826
19	16707	12.8	236.18188193579
19	16932	12.9	236.05591351792
19	17157	13	235.92871871374
19	17382	13.1	235.80029744049
19	17607	13.2	235.67064963026
19	17832	13.3	235.53977522736
19	18057	13.4	235.40767418608
19	18282	13.5	235.27434646894
19	18507	13.6	235.13979204519
19	18732	13.7	235.0040108896
19	18957	13.8	234.86700298148
19	19182	13.9	234.72876830384
19	19407	14	234.58930684277
19	19632	14.1	234.44861858683
19	19857	14.2	234.30670352666
19	20082	14.3	234.16356165456
19	20307	14.4	234.01919296423
19	20532	14.5	233.8735974505
19	20757	14.6	233.72677510911
19	20982	14.7	233.57872593659
19	21207	14.8	233.42944993008
19	21432	14.9	233.27894708723
19	21657	15	233.12721740613
19	21882	15.1	232.9742608852
19	22107	15.2	232.82007752314
19	22332	15.3	232.66466731889
19	22557	15.4	232.50803027158
19	22782	15.5	232.3501663805
19	23007	15.6	232.19107564506
19	23232	15.7	232.03075806479
19	23457	15.8	231.8692158543
19	23682	15.9	231.70649936315
19	23907	16	231.54276340773
19	24132	16.1	231.37825395582
19	24357	16.2	231.21328709414
19	24582	16.3	231.04823017436
19	24807	16.4	230.88348506751
19	25032	16.5	230.71947347345
19	25257	16.6	230.55662420768
19	25482	16.7	230.39536236896
19	25707	16.8	230.2361002755
19	25932	16.9	230.07923004725
19	26157	17	229.92511770362
19	26382	17.1	229.77409864209
19	26607	17.2	229.62647436125
19	26832	17.3	229.48250985343
19	27057	17.4	229.34242894094
19	27282	17.5	229.20641554991
19	27507	17.6	229.07462043372
19	27732	17.7	228.94716318622
19	27957	17.8	228.82412918288
19	28182	17.9	228.70557060933
19	28407	18	228.71031736861
19	28632	18.1	229.10862213176
19	28857	18.2	230.07518227621
19	29082	18.3	231.2961232331
19	29307	18.4	232.49317625573
19	29532	18.5	233.63668725389
19	29757	18.6	234.7420515241
19	29982	18.7	235.82280729164
19	30207	18.8	236.88691817097
19	30432	18.9	237.94030521987
19	30657	19	238.98758321616
19	30882	19.1	240.03253788494
19	31107	19.2	241.07827483937
19	31332	19.3	242.12734176393
19	31557	19.4	243.18182864725
19	31782	19.5	244.24345000796
19	32007	19.6	245.31361234848
19	32232	19.7	246.39346949069
19	32457	19.8	247.48396797042
19	32682	19.9	248.58588427671
19	32907	20	249.69985540104
19	33175	20.1	250.82640389827
19	33400	20.2	251.96595844541
19	33625	20.3	253.1188707069
19	33850	20.4	254.28542917007
19	34075	20.5	255.46587049503
19	34300	20.6	256.66038882546
19	34525	20.7	257.86914342684
19	34750	20.8	259.0922649523
19	34975	20.9	260.32986058293
19	35200	21	261.58201824456
19	35425	21.1	262.84881006699
19	35650	21.2	264.13029522178
19	35875	21.3	265.42652225021
19	36100	21.4	266.73753097304
19	36325	21.5	268.06335405717
19	36550	21.6	269.40401830083
19	36775	21.7	270.75954568791
19	37000	21.8	272.12995425284
19	37225	21.9	273.51525879015
19	37450	22	274.91547143651
19	37675	22.1	276.3306021482
19	37900	22.2	277.76065909284
19	38125	22.3	279.20564897074
19	38350	22.4	280.66557727848
19	38575	22.5	282.14044852515
19	38800	22.6	283.63026640981
19	39025	22.7	285.13503396696
19	39250	22.8	286.65475368593
19	39475	22.9	288.18942760886
19	39700	23	289.73905741102
19	39925	23.1	291.30364446669
19	40150	23.2	292.88318990328
19	40375	23.3	294.47769464565
19	40600	23.4	296.08715945252
19	40825	23.5	297.71158494628
19	41050	23.6	299.35097163752
19	41275	23.7	301.00531994512
19	41500	23.8	302.67463021267
19	41725	23.9	304.35890272206
19	41950	24	306.05813770453
19	42175	24.1	307.77233534978
19	42400	24.2	309.50149581343
19	42625	24.3	311.24561922313
19	42850	24.4	313.00470568363
19	43075	24.5	314.77875528082
19	43300	24.6	316.56776808519
19	43525	24.7	318.37174415455
19	43750	24.8	320.19068353634
19	43975	24.9	322.02458626946
19	44200	25	323.87345238583
19	44425	25.1	325.73728191163
19	44650	25.2	327.61607486835
19	44875	25.3	329.50983127361
19	45100	25.4	331.41855114186
19	45325	25.5	333.34223448497
19	45550	25.6	335.28088131265
19	45775	25.7	337.2344916329
19	46000	25.8	339.20306545225
19	46225	25.9	341.18660277608
19	46450	26	343.1851036088
19	46675	26.1	345.19856795402
19	46900	26.2	347.2269958147
19	47125	26.3	349.27038719327
19	47350	26.4	351.32874209174
19	47575	26.5	353.40206051174
19	47800	26.6	355.49034245461
19	48025	26.7	357.59358792145
19	48250	26.8	359.71179691316
19	48475	26.9	361.8449694305
19	48700	27	363.99310547406
19	48925	27.1	366.15620504434
19	49150	27.2	368.33426814177
19	49375	27.3	370.52729476666
19	49600	27.4	372.73526530961
19	49825	27.5	374.9575944245
19	50050	27.6	377.09227196112
19	50275	27.7	379.33581362925
19	50500	27.8	381.58438808269
19	50725	27.9	383.83313018996
19	50950	28	386.07670556488
19	51175	28.1	388.30950391929
19	51400	28.2	390.52581098045
19	51625	28.3	392.71995508697
19	51850	28.4	394.88642995811
19	52075	28.5	397.01999780089
19	52300	28.6	399.11589873953
19	52525	28.7	401.17014836647
19	52750	28.8	403.17947826163
19	52975	28.9	405.14120718218
19	53200	29	407.05313557513
19	53425	29.1	408.91345904089
19	53650	29.2	410.72069734335
19	53875	29.3	412.47363617334
19	54100	29.4	414.17127937437
19	54325	29.5	415.81280975118
19	54550	29.6	417.39755691902
19	54775	29.7	418.9249709289
19	55000	29.8	420.39460063109
19	55225	29.9	421.80607756629
19	55450	30	423.15919795982
19	55675	30.1	424.45413995404
18	28	0.2	29.212573974474
18	40	0.3	29.220528664671
18	52	0.4	29.235160920477
18	64	0.5	29.25795867906
18	76	0.6	29.290142567146
18	88	0.7	29.332713923795
18	136	0.8	29.386494195802
18	184	0.9	29.452157255649
18	232	1	29.530255913481
18	280	1.1	29.62124366616
18	328	1.2	29.725492539066
18	376	1.3	29.843307722588
18	424	1.4	29.974939579141
18	472	1.5	30.120593493108
18	520	1.6	30.280437951217
18	568	1.7	30.45461117127
18	616	1.8	30.643226540007
18	664	1.9	30.846377074044
18	712	2	31.064139079406
18	760	2.1	31.296575153612
18	808	2.2	31.543736648427
18	856	2.3	31.805665690187
18	904	2.4	32.08239683716
18	952	2.5	32.37395843916
18	1000	2.6	32.680373752911
18	1048	2.7	33.001661857026
18	1096	2.8	33.337838402614
18	1144	2.9	33.688916229033
18	1192	3	34.054905869031
18	1251	3.1	34.43581596313
18	1316	3.2	34.831653599564
18	1381	3.3	35.242424593159
18	1472	3.4	35.668133714094
18	1563	3.5	36.108784875578
18	1654	3.6	36.564381287805
18	1745	3.7	37.034925584254
18	1836	3.8	37.520419925292
18	1927	3.9	38.020866083176
18	2018	4	38.536265511771
18	2109	4.1	39.066619403754
18	2200	4.2	39.611928737535
18	2291	4.3	40.172194315753
18	2382	4.4	40.747416796848
18	2473	4.5	41.337596720973
18	2564	4.6	41.94273453124
18	2655	4.7	42.562830591156
18	2746	4.8	43.197885198924
18	2837	4.9	43.847898599172
18	2928	5	44.512870992583
18	3019	5.1	45.192802543784
18	3110	5.2	45.88769338783
18	3201	5.3	46.59754363551
18	3292	5.4	47.322353377711
18	3383	5.5	48.062122688992
18	3474	5.6	48.816851630517
18	3565	5.7	49.586540252461
18	3656	5.8	50.371188595988
18	3747	5.9	51.170796694862
18	3838	6	51.985364576787
18	3948	6.1	52.814892264484
18	4064	6.2	53.659379776597
18	4180	6.3	54.518827128417
18	4296	6.4	55.393234332491
18	4412	6.5	56.28260139911
18	4562	6.6	57.186928336716
18	4712	6.7	58.106215152235
18	4862	6.8	59.04046185135
18	5012	6.9	59.98966843872
18	5162	7	60.95383491817
18	5312	7.1	61.932961292837
18	5462	7.2	62.927047565293
18	5612	7.3	63.93609373765
18	5762	7.4	64.96009961874
18	5912	7.5	65.998942078476
18	6062	7.6	67.051839366596
18	6212	7.7	68.117234246472
18	6362	7.8	69.19295425491
18	6512	7.9	70.276360940899
18	6662	8	71.364483497782
18	6812	8.1	72.45413703035
18	6962	8.2	73.542025901778
18	7112	8.3	74.514830528571
18	7262	8.4	75.450201147659
18	7412	8.5	76.371433816835
18	7562	8.6	77.326544565309
18	7712	8.7	78.372946303169
18	7862	8.8	79.40869366163
18	8012	8.9	80.435641356601
18	8162	9	81.457883342841
18	8339	9.1	82.482632536829
18	8564	9.2	83.511923520479
18	8789	9.3	84.547625968878
18	9014	9.4	85.591273666804
18	9239	9.5	86.644124851995
18	9464	9.6	87.707211717636
18	9689	9.7	88.781381021656
18	9914	9.8	89.867327400479
18	10139	9.9	90.965620697916
18	10364	10	92.076728384367
18	10632	10.1	93.201033948383
18	10857	10.2	94.338851984143
18	11082	10.3	95.490440568445
18	11307	10.4	96.656011414154
18	11532	10.5	97.835738199559
18	11757	10.6	99.029763401348
18	11982	10.7	100.23820390003
18	12207	10.8	101.46115557833
18	12432	10.9	102.69869709348
18	12657	11	103.95089297182
18	12882	11.1	105.21779614739
18	13107	11.2	106.49945004457
18	13332	11.3	107.79589028646
18	13557	11.4	109.10714609643
18	13782	11.5	110.4332414478
18	14007	11.6	111.77419600704
18	14232	11.7	113.13002590753
18	14457	11.8	114.50074438424
18	14682	11.9	115.88636229446
18	14907	12	117.28688854495
18	15132	12.1	118.70233044236
18	15357	12.2	120.13269398068
18	15582	12.3	121.57798407707
18	15807	12.4	123.03820476533
18	16032	12.5	124.51335935456
18	16257	12.6	126.00345055938
18	16482	12.7	127.50848060673
18	16707	12.8	129.02845132347
18	16932	12.9	130.56336420827
18	17157	13	132.11322049055
18	17382	13.1	133.67802117888
18	17607	13.2	135.25776710061
18	17832	13.3	136.85245893449
18	18057	13.4	138.4620972373
18	18282	13.5	140.08668246582
18	18507	13.6	141.72621499475
18	18732	13.7	143.38069513147
18	18957	13.8	145.05012312817
18	19182	13.9	146.73449919169
18	19407	14	148.43382349175
18	19632	14.1	150.14809616756
18	19857	14.2	151.87731733333
18	20082	14.3	153.62148708273
18	20307	14.4	155.38060549263
18	20532	14.5	157.15467262608
18	20757	14.6	158.94368853479
18	20982	14.7	160.7476532612
18	21207	14.8	162.56656684011
18	21432	14.9	164.40042930008
18	21657	15	166.24924066453
18	21882	15.1	168.11300095269
18	22107	15.2	169.99171018031
18	22332	15.3	171.88536836032
18	22557	15.4	173.79397550333
18	22782	15.5	175.71753161805
18	23007	15.6	177.65603671162
18	23232	15.7	179.60949078989
18	23457	15.8	181.57786686776
18	23682	15.9	183.56055144109
18	23907	16	185.55565808696
18	24132	16.1	187.56018971219
18	24357	16.2	189.57029483086
18	24582	16.3	191.58149729872
18	24807	16.4	193.58890035633
18	25032	16.5	195.58736563231
18	25257	16.6	197.57166805126
18	25482	16.7	199.53662782661
18	25707	16.8	201.47722090093
18	25932	16.9	203.388669331
18	26157	17	205.26651320591
18	26382	17.1	207.10666574019
18	26607	17.2	208.90545320299
18	26832	17.3	210.65964668834
18	27057	17.4	212.36651894359
18	27282	17.5	214.02382884641
18	27507	17.6	215.62973948192
18	27732	17.7	217.18279361046
18	27957	17.8	218.68195094045
18	28182	17.9	220.1265755949
18	28407	18	221.51890513723
18	28632	18.1	222.77713701248
18	28857	18.2	223.61382268985
18	29082	18.3	223.91013322038
18	29307	18.4	223.9995002799
18	29532	18.5	224.05375575169
18	29757	18.6	224.12029614185
18	29982	18.7	224.19293441308
18	30207	18.8	224.26785196872
18	30432	18.9	224.34201452488
18	30657	19	224.41574697991
18	30882	19.1	224.48931586363
18	31107	19.2	224.5629398233
18	31332	19.3	224.63679822586
18	31557	19.4	224.71103821465
18	31782	19.5	224.78578049847
18	32007	19.6	224.86112410058
18	32232	19.7	224.93715025453
18	32457	19.8	225.01392560015
18	32682	19.9	225.09150480528
18	32907	20	225.16993271661
18	33175	20.1	225.24924612404
18	33400	20.2	225.3294752081
18	33625	20.3	225.41064472735
18	33850	20.4	225.49277499241
18	34075	20.5	225.57588266507
18	34300	20.6	225.65998141383
18	34525	20.7	225.74508245157
18	34750	20.8	225.83119497679
18	34975	20.9	225.91832653547
18	35200	21	226.00648331791
18	35425	21.1	226.09567040235
18	35650	21.2	226.18589195468
18	35875	21.3	226.27715139241
18	36100	21.4	226.36945151906
18	36325	21.5	226.46279463453
18	36550	21.6	226.5571826255
18	36775	21.7	226.65261703973
18	37000	21.8	226.74909914691
18	37225	21.9	226.84662998864
18	37450	22	226.94521041938
18	37675	22.1	227.0448411401
18	37900	22.2	227.14552272583
18	38125	22.3	227.24725564829
18	38350	22.4	227.35004029447
18	38575	22.5	227.45387698182
18	38800	22.6	227.55876597077
18	39025	22.7	227.66470747497
18	39250	22.8	227.77170166967
18	39475	22.9	227.87974869865
18	39700	23	227.98884867984
18	39925	23.1	228.09900171002
18	40150	23.2	228.21020786854
18	40375	23.3	228.32246722053
18	40600	23.4	228.43577981939
18	40825	23.5	228.55014570896
18	41050	23.6	228.66556492518
18	41275	23.7	228.78203749753
18	41500	23.8	228.89956345021
18	41725	23.9	229.01814280306
18	41950	24	229.13777557237
18	42175	24.1	229.25846177149
18	42400	24.2	229.38020141138
18	42625	24.3	229.50299450102
18	42850	24.4	229.62684104778
18	43075	24.5	229.75174105772
18	43300	24.6	229.8776945358
18	43525	24.7	230.00470148609
18	43750	24.8	230.13276191192
18	43975	24.9	230.26187581605
18	44200	25	230.3920432007
18	44425	25.1	230.52326406773
18	44650	25.2	230.65553841866
18	44875	25.3	230.78886625471
18	45100	25.4	230.92324757691
18	45325	25.5	231.05868238609
18	45550	25.6	231.19517068295
18	45775	25.7	231.33271246803
18	46000	25.8	231.4713077418
18	46225	25.9	231.61095650464
18	46450	26	231.75165875686
18	46675	26.1	231.89341449871
18	46900	26.2	232.03622373041
18	47125	26.3	232.18008645212
18	47350	26.4	232.32500266398
18	47575	26.5	232.47097236611
18	47800	26.6	232.61799555861
18	48025	26.7	232.76607224154
18	48250	26.8	232.91520241499
18	48475	26.9	233.06538607899
18	48700	27	233.21662323358
18	48925	27.1	233.36891387882
18	49150	27.2	233.52225801472
18	49375	27.3	233.6766556413
18	49600	27.4	233.832105378
18	49825	27.5	233.98856601415
18	50050	27.6	234.13995784963
18	50275	27.7	234.29932276768
18	50500	27.8	234.45897155387
18	50725	27.9	234.61863224349
18	50950	28	234.77792609511
18	51175	28.1	234.93645477827
18	51400	28.2	235.09381257961
18	51625	28.3	235.24959681117
18	51850	28.4	235.40341652703
18	52075	28.5	235.55489984386
18	52300	28.6	235.70370881051
18	52525	28.7	235.84956053402
18	52750	28.8	235.99222295658
18	52975	28.9	236.13150570994
18	53200	29	236.26725262583
18	53425	29.1	236.3993355919
18	53650	29.2	236.52764951138
18	53875	29.3	236.65210816831